  38
# Step             100000000
Ar        1.2385809E-001       -1.2885071E-001        1.6577316E+000
Ar        1.4862227E+000        1.2863737E+000        1.8722737E+000
Ar       -2.6828927E-001        2.4306611E+000        1.8969379E+000
Ar       -6.6108280E-001        6.4007644E-001        1.9606859E+000
Ar       -1.8460073E-001        1.4552445E+000        1.3697016E+000
Ar       -1.9644495E-001        1.7176915E+000        3.4884509E+000
Ar        7.9018355E-001        1.4138205E+000        2.9621173E+000
Ar        2.2351663E+000        2.1788854E+000        1.8267487E+000
Ar       -2.2434050E-002        5.5783953E-001        2.9906928E+000
Ar       -2.5332174E-002        1.5865626E+000        2.6159532E-001
Ar        1.1708072E+000        4.2457346E-001        1.1259102E+000
Ar       -1.1129804E+000        1.7549963E+000        1.8746030E+000
Ar       -2.8535595E-001        2.8461553E+000        3.6732259E+000
Ar        1.3967891E+000        2.3275470E+000        2.5578413E+000
Ar       -2.3287550E-001        1.4956096E+000        2.4566095E+000
Ar       -8.7298110E-001        2.3348115E+000        9.5503095E-001
Ar       -1.2311848E+000        2.9182578E+000        1.8154033E+000
Ar        2.9705194E-001        2.3417400E+000        1.0456338E+000
Ar        7.7338699E-001        1.3662937E+000        1.0364694E+000
Ar        9.0027907E-001        4.0240983E+000        2.2041975E+000
Ar        2.4685949E-001        2.3906774E+000        2.7913950E+000
Ar       -1.4905483E-001        3.3438671E+000        1.2926836E+000
Ar       -1.0836869E+000        1.2136755E+000        2.9565543E+000
Ar        9.2291623E-001        3.2084227E+000        3.0485744E+000
Ar        6.5996759E-001        2.9947418E+000        1.9844023E+000
Ar        1.9259848E+000        1.5511022E+000        8.2851755E-001
Ar        6.4530034E-001        1.8795804E+000        1.9535206E+000
Ar        9.4656380E-001        2.2563657E+000        3.6861886E+000
Ar        1.0131050E+000        3.3527104E+000        9.9420473E-001
Ar        1.0621938E+000        2.1417103E+000        2.7529963E-001
Ar       -9.4515670E-001        1.1808269E+000        6.3790462E-001
Ar        5.0475128E-001        8.1709717E-001        2.0076717E+000
Ar       -2.7551003E-001        3.3305618E+000        2.5619477E+000
Ar       -8.3289168E-001        2.3263836E+000        2.8114364E+000
Ar        1.6771433E+000        3.2352615E+000        2.0648640E+000
Ar        1.3502650E+000        2.3600675E+000        1.3052218E+000
Ar        1.3864516E-001        2.9095682E+000        2.0477748E-001
Ar        6.1950775E-002        5.6948810E-001        8.0154778E-001
