  38
# Step              10000000
Ar       -7.1324326E-001        3.3221013E+000        9.7682151E-001
Ar        1.5729415E-001        2.6614338E+000        2.9620306E-001
Ar        6.3546784E-001        8.9858096E-001        3.2271599E+000
Ar       -9.1549699E-001        2.1076359E+000        6.7156665E-001
Ar        7.5308076E-001        3.8003982E+000        2.0715971E+000
Ar        1.5348418E+000        2.0504552E+000        1.9278408E+000
Ar        4.8449841E-001        3.4251787E+000        1.1092845E+000
Ar       -8.4499467E-002        2.4775501E+000        1.2633501E+000
Ar       -6.4670842E-001        6.9342767E-001        3.2105455E+000
Ar        9.9438315E-001        8.9095515E-001        2.1980416E+000
Ar       -2.2013773E-001        1.7791878E+000        3.3389036E+000
Ar        1.7671128E+000        2.0504482E+000        3.0140523E+000
Ar        1.1719108E+000        1.3001584E+000        1.0147472E+000
Ar        7.3985807E-001        1.8841565E+000        2.6890561E+000
Ar       -6.3050492E-001        7.9813988E-001        8.0668877E-001
Ar        2.3522242E-001        7.7099629E-001        1.3599752E+000
Ar        1.6494418E+000        9.1266570E-001        3.0091604E+000
Ar       -2.5089159E-001        3.3664974E+000        2.2182368E+000
Ar        1.6420751E+000        3.0350734E+000        2.5353517E+000
Ar        7.0434238E-001        2.7621965E+000        1.9860885E+000
Ar        7.7934026E-001        1.8944666E+000        3.7777892E+000
Ar       -1.5183734E+000        1.4183781E+000        1.3152179E+000
Ar        5.4664354E-001        1.7590479E+000        1.6918242E+000
Ar        2.3111999E-001        1.4755372E-001        2.5064448E+000
Ar       -9.8652410E-001        1.7005047E+000        2.5887841E+000
Ar        1.9699161E-001        1.6336735E+000        6.4544458E-001
Ar       -8.1595489E-001        5.2380943E-001        1.9469166E+000
Ar        9.5233742E-001        2.4507900E+000        1.0261971E+000
Ar        1.8604950E-001        2.7302438E+000        3.0610646E+000
Ar       -1.0227040E+000        2.5586852E+000        1.7666542E+000
Ar        1.9680868E+000        2.3277711E+000        9.1923908E-001
Ar       -9.4792391E-001        2.7823148E+000        2.8944058E+000
Ar       -1.5747863E-001        2.2060391E+000        2.2589570E+000
Ar        1.3131491E+000        3.2205072E+000        3.5837759E-001
Ar        1.1801265E+000        1.8657711E+000        6.4280304E-002
Ar       -5.2424735E-002        1.1525559E+000        2.4440841E+000
Ar        1.5804391E+000        3.1765967E+000        1.4878427E+000
Ar       -4.9141796E-001        1.4985497E+000        1.5603773E+000
