  38
# Step              80000000
Ar       -1.3351080E+000        3.2701194E+000        1.4404185E+000
Ar        8.4150033E-001        1.4595610E+000        8.2906280E-002
Ar       -9.0691028E-001        1.6152394E+000        1.2464122E+000
Ar       -1.1077760E+000        2.4559399E+000        6.0326462E-001
Ar        3.0098501E-001        1.5657404E+000        2.7229723E+000
Ar        1.8604467E+000        5.1415517E-001        2.1259111E+000
Ar       -1.5430936E+000        2.1104068E+000        1.9229491E+000
Ar        1.5667221E+000        9.1982665E-001        9.7273322E-001
Ar        6.1698635E-001        3.8787766E+000        1.3545320E+000
Ar        7.4236771E-001        5.7076713E-001        2.8280039E+000
Ar        7.9502894E-002        2.5979423E+000        2.4193831E+000
Ar        8.8619182E-001        1.0605844E+000        1.8602742E+000
Ar       -3.3359207E-001        3.2374774E+000        7.4690988E-001
Ar        5.6548678E-001        1.3246721E+000        3.7230074E+000
Ar        2.2332842E-001        1.0118122E+000        9.6179492E-001
Ar        1.8304761E+000        1.8440822E+000        4.3499600E-001
Ar        8.8697112E-001        3.2986901E+000        2.3355007E+000
Ar       -1.0066236E+000        2.8539842E+000        2.5901150E+000
Ar       -5.9674933E-001        2.5623656E+000        1.5747987E+000
Ar       -1.1502973E+000        9.5247696E-001        2.1118179E+000
Ar       -3.2737555E-001        3.4889993E+000        1.9877455E+000
Ar       -1.2877218E-001        7.2554829E-001        2.1320517E+000
Ar       -6.9227264E-001        1.8257578E+000        2.4956649E+000
Ar        7.7348375E-001        4.8934673E-002        1.4344980E+000
Ar        4.0915194E-001        2.7915207E+000        1.4444286E+000
Ar        1.5002402E+000        2.8387554E+000        1.3711734E+000
Ar       -7.7038259E-002        2.0815253E+000        6.1064259E-001
Ar       -4.1568554E-001        1.0306054E+000        3.3100003E+000
Ar       -9.7679478E-002        3.3549855E+000        3.1217811E+000
Ar        1.8776365E+000        2.4924379E+000        2.6457353E+000
Ar        7.4783237E-001        2.6986684E+000        3.8024607E-001
Ar        9.2095728E-001        1.9042935E+000        1.0968497E+000
Ar        1.0322864E+000        2.1905828E+000        2.1190076E+000
Ar        8.6267165E-001        2.3920397E+000        3.1858855E+000
Ar       -2.1750289E-001        2.2245553E+000        3.3791133E+000
Ar        4.9677573E-002        1.7464162E+000        1.7276758E+000
Ar        1.3851439E+000        1.4533917E+000        2.8467551E+000
Ar        1.9259595E+000        1.6408581E+000        1.8906173E+000
